   30   30    1    1
  0.4684752E+02  0.7354920E-09  0.7354920E-09  0.3000000E-08  0.5000000E-15
  1.000000000000000E-004
  CAR 
 unknown system                          
    104    180     68
 
  0.5000000E+00  0.0000000E+00  0.0000000E+00  0.5555556E-02
    1      -21.238266   1.000000
    2      -21.227713   1.000000
    3      -19.923966   1.000000
    4      -19.921097   1.000000
    5      -17.420359   1.000000
    6      -17.418901   1.000000
    7      -17.382288   1.000000
    8      -17.377141   1.000000
    9      -16.557104   1.000000
   10      -15.563409   1.000000
   11      -13.688053   1.000000
   12      -13.681935   1.000000
   13      -13.673670   1.000000
   14      -13.672652   1.000000
   15      -10.651696   1.000000
   16      -10.644015   1.000000
   17      -10.315542   1.000000
   18      -10.313280   1.000000
   19      -10.306142   1.000000
   20      -10.300171   1.000000
   21       -9.991278   1.000000
   22       -9.982922   1.000000
   23       -9.897297   1.000000
   24       -9.888953   1.000000
   25       -9.380320   1.000000
   26       -9.352181   1.000000
   27       -8.656140   1.000000
   28       -8.654674   1.000000
   29       -8.649209   1.000000
   30       -7.877070   1.000000
   31       -7.875364   1.000000
   32       -7.539051   1.000000
   33       -7.512274   1.000000
   34       -6.364550   1.000000
   35       -6.359822   1.000000
   36       -5.228529   1.000000
   37       -5.210515   1.000000
   38       -5.109241   1.000000
   39       -5.085621   1.000000
   40       -4.815377   1.000000
   41       -4.405121   1.000000
   42       -4.401121   1.000000
   43       -3.441839   1.000000
   44       -3.415686   1.000000
   45       -3.233122   1.000000
   46       -3.202404   1.000000
   47       -3.116429   1.000000
   48       -3.104201   1.000000
   49       -2.119234   1.000000
   50       -2.111553   1.000000
   51       -1.534719   1.000000
   52       -1.529319   1.000000
   53       -0.820016   0.000000
   54        0.078595   0.000000
   55        0.116449   0.000000
   56        0.150914   0.000000
   57        0.153662   0.000000
   58        0.198742   0.000000
   59        0.240666   0.000000
   60        1.288112   0.000000
   61        1.294111   0.000000
   62        1.831885   0.000000
   63        1.842818   0.000000
   64        2.370249   0.000000
   65        2.389622   0.000000
   66        2.534535   0.000000
   67        2.535182   0.000000
   68        2.801259   0.000000
 
  0.4915254E+00  0.0000000E+00  0.0000000E+00  0.5555556E-02
    1      -21.255824   1.000000
    2      -21.209780   1.000000
    3      -19.923780   1.000000
    4      -19.920910   1.000000
    5      -17.446074   1.000000
    6      -17.444074   1.000000
    7      -17.355908   1.000000
    8      -17.352090   1.000000
    9      -16.560949   1.000000
   10      -15.559275   1.000000
   11      -13.703670   1.000000
   12      -13.700114   1.000000
   13      -13.656900   1.000000
   14      -13.655045   1.000000
   15      -10.665425   1.000000
   16      -10.630142   1.000000
   17      -10.366896   1.000000
   18      -10.364486   1.000000
   19      -10.253527   1.000000
   20      -10.250596   1.000000
   21       -9.992618   1.000000
   22       -9.984259   1.000000
   23       -9.897269   1.000000
   24       -9.888926   1.000000
   25       -9.394861   1.000000
   26       -9.337224   1.000000
   27       -8.655098   1.000000
   28       -8.653647   1.000000
   29       -8.648984   1.000000
   30       -7.876921   1.000000
   31       -7.875192   1.000000
   32       -7.593732   1.000000
   33       -7.458028   1.000000
   34       -6.392928   1.000000
   35       -6.331529   1.000000
   36       -5.240060   1.000000
   37       -5.225790   1.000000
   38       -5.093854   1.000000
   39       -5.073925   1.000000
   40       -4.816722   1.000000
   41       -4.405836   1.000000
   42       -4.401832   1.000000
   43       -3.469012   1.000000
   44       -3.393425   1.000000
   45       -3.235653   1.000000
   46       -3.194403   1.000000
   47       -3.115326   1.000000
   48       -3.103058   1.000000
   49       -2.119167   1.000000
   50       -2.111484   1.000000
   51       -1.543695   1.000000
   52       -1.520280   1.000000
   53       -0.818420   0.000000
   54        0.061824   0.000000
   55        0.112103   0.000000
   56        0.120321   0.000000
   57        0.192320   0.000000
   58        0.205327   0.000000
   59        0.247277   0.000000
   60        1.287860   0.000000
   61        1.293887   0.000000
   62        1.822989   0.000000
   63        1.850962   0.000000
   64        2.369796   0.000000
   65        2.389043   0.000000
   66        2.505934   0.000000
   67        2.564008   0.000000
   68        2.784664   0.000000
 
  0.4830508E+00  0.0000000E+00  0.0000000E+00  0.5555556E-02
    1      -21.277358   1.000000
    2      -21.187116   1.000000
    3      -19.923223   1.000000
    4      -19.920354   1.000000
    5      -17.484572   1.000000
    6      -17.482190   1.000000
    7      -17.316579   1.000000
    8      -17.313230   1.000000
    9      -16.572308   1.000000
   10      -15.547059   1.000000
   11      -13.724728   1.000000
   12      -13.721616   1.000000
   13      -13.634971   1.000000
   14      -13.632685   1.000000
   15      -10.682208   1.000000
   16      -10.612929   1.000000
   17      -10.423583   1.000000
   18      -10.421016   1.000000
   19      -10.197392   1.000000
   20      -10.194630   1.000000
   21       -9.996616   1.000000
   22       -9.988249   1.000000
   23       -9.897188   1.000000
   24       -9.888847   1.000000
   25       -9.417657   1.000000
   26       -9.313183   1.000000
   27       -8.652004   1.000000
   28       -8.650692   1.000000
   29       -8.648179   1.000000
   30       -7.876515   1.000000
   31       -7.874681   1.000000
   32       -7.660143   1.000000
   33       -7.392874   1.000000
   34       -6.423611   1.000000
   35       -6.301109   1.000000
   36       -5.267568   1.000000
   37       -5.258186   1.000000
   38       -5.061147   1.000000
   39       -5.045933   1.000000
   40       -4.820731   1.000000
   41       -4.407969   1.000000
   42       -4.403954   1.000000
   43       -3.508147   1.000000
   44       -3.371447   1.000000
   45       -3.233813   1.000000
   46       -3.177429   1.000000
   47       -3.112025   1.000000
   48       -3.099630   1.000000
   49       -2.118967   1.000000
   50       -2.111281   1.000000
   51       -1.554831   1.000000
   52       -1.508960   1.000000
   53       -0.813647   0.000000
   54        0.030004   0.000000
   55        0.072054   0.000000
   56        0.115522   0.000000
   57        0.226261   0.000000
   58        0.232279   0.000000
   59        0.263460   0.000000
   60        1.287104   0.000000
   61        1.293213   0.000000
   62        1.809617   0.000000
   63        1.862075   0.000000
   64        2.368440   0.000000
   65        2.387314   0.000000
   66        2.477293   0.000000
   67        2.593310   0.000000
   68        2.791000   0.000000
 
  0.4745763E+00  0.0000000E+00  0.0000000E+00  0.5555556E-02
    1      -21.298727   1.000000
    2      -21.163876   1.000000
    3      -19.922288   1.000000
    4      -19.919420   1.000000
    5      -17.524115   1.000000
    6      -17.521571   1.000000
    7      -17.275714   1.000000
    8      -17.272545   1.000000
    9      -16.590661   1.000000
   10      -15.527283   1.000000
   11      -13.745909   1.000000
   12      -13.742962   1.000000
   13      -13.612348   1.000000
   14      -13.609899   1.000000
   15      -10.698970   1.000000
   16      -10.595456   1.000000
   17      -10.480465   1.000000
   18      -10.477834   1.000000
   19      -10.141447   1.000000
   20      -10.138745   1.000000
   21      -10.003221   1.000000
   22       -9.994848   1.000000
   23       -9.897051   1.000000
   24       -9.888715   1.000000
   25       -9.441159   1.000000
   26       -9.287607   1.000000
   27       -8.648130   1.000000
   28       -8.646625   1.000000
   29       -8.644795   1.000000
   30       -7.876054   1.000000
   31       -7.873832   1.000000
   32       -7.727086   1.000000
   33       -7.327801   1.000000
   34       -6.454385   1.000000
   35       -6.270776   1.000000
   36       -5.302079   1.000000
   37       -5.295820   1.000000
   38       -5.023082   1.000000
   39       -5.010634   1.000000
   40       -4.827308   1.000000
   41       -4.411481   1.000000
   42       -4.407443   1.000000
   43       -3.549091   1.000000
   44       -3.363692   1.000000
   45       -3.218275   1.000000
   46       -3.157053   1.000000
   47       -3.106556   1.000000
   48       -3.093914   1.000000
   49       -2.118633   1.000000
   50       -2.110942   1.000000
   51       -1.565999   1.000000
   52       -1.497492   1.000000
   53       -0.805717   0.000000
   54       -0.005877   0.000000
   55        0.031884   0.000000
   56        0.101199   0.000000
   57        0.256163   0.000000
   58        0.272181   0.000000
   59        0.284694   0.000000
   60        1.285847   0.000000
   61        1.292093   0.000000
   62        1.795325   0.000000
   63        1.872591   0.000000
   64        2.366188   0.000000
   65        2.384462   0.000000
   66        2.448982   0.000000
   67        2.622676   0.000000
   68        2.760137   0.000000
 
  0.4661017E+00  0.0000000E+00  0.0000000E+00  0.5555556E-02
    1      -21.319773   1.000000
    2      -21.140214   1.000000
    3      -19.920979   1.000000
    4      -19.918111   1.000000
    5      -17.563737   1.000000
    6      -17.561102   1.000000
    7      -17.234250   1.000000
    8      -17.231178   1.000000
    9      -16.615263   1.000000
   10      -15.500701   1.000000
   11      -13.766915   1.000000
   12      -13.764060   1.000000
   13      -13.589324   1.000000
   14      -13.586783   1.000000
   15      -10.715595   1.000000
   16      -10.577878   1.000000
   17      -10.537439   1.000000
   18      -10.534809   1.000000
   19      -10.085790   1.000000
   20      -10.083094   1.000000
   21      -10.012316   1.000000
   22      -10.003974   1.000000
   23       -9.896857   1.000000
   24       -9.888527   1.000000
   25       -9.464574   1.000000
   26       -9.261291   1.000000
   27       -8.646485   1.000000
   28       -8.639595   1.000000
   29       -8.637815   1.000000
   30       -7.876513   1.000000
   31       -7.872623   1.000000
   32       -7.793262   1.000000
   33       -7.263170   1.000000
   34       -6.485214   1.000000
   35       -6.240565   1.000000
   36       -5.339521   1.000000
   37       -5.335203   1.000000
   38       -4.983364   1.000000
   39       -4.972126   1.000000
   40       -4.836218   1.000000
   41       -4.416303   1.000000
   42       -4.412229   1.000000
   43       -3.590718   1.000000
   44       -3.368935   1.000000
   45       -3.189960   1.000000
   46       -3.134796   1.000000
   47       -3.098964   1.000000
   48       -3.085880   1.000000
   49       -2.118168   1.000000
   50       -2.110468   1.000000
   51       -1.577114   1.000000
   52       -1.485959   1.000000
   53       -0.794675   0.000000
   54       -0.043373   0.000000
   55       -0.008333   0.000000
   56        0.082670   0.000000
   57        0.288612   0.000000
   58        0.309540   0.000000
   59        0.312068   0.000000
   60        1.284093   0.000000
   61        1.290529   0.000000
   62        1.780455   0.000000
   63        1.882157   0.000000
   64        2.363040   0.000000
   65        2.380527   0.000000
   66        2.421062   0.000000
   67        2.651980   0.000000
   68        2.738296   0.000000
 
  0.4576271E+00  0.0000000E+00  0.0000000E+00  0.5555556E-02
    1      -21.340465   1.000000
    2      -21.116163   1.000000
    3      -19.919295   1.000000
    4      -19.916428   1.000000
    5      -17.603225   1.000000
    6      -17.600531   1.000000
    7      -17.192399   1.000000
    8      -17.189389   1.000000
    9      -16.645249   1.000000
   10      -15.468152   1.000000
   11      -13.787681   1.000000
   12      -13.784890   1.000000
   13      -13.565964   1.000000
   14      -13.563362   1.000000
   15      -10.732054   1.000000
   16      -10.594760   1.000000
   17      -10.591911   1.000000
   18      -10.559927   1.000000
   19      -10.031924   1.000000
   20      -10.028099   1.000000
   21      -10.022305   1.000000
   22      -10.015203   1.000000
   23       -9.896598   1.000000
   24       -9.888283   1.000000
   25       -9.487725   1.000000
   26       -9.234414   1.000000
   27       -8.644708   1.000000
   28       -8.630602   1.000000
   29       -8.628791   1.000000
   30       -7.887332   1.000000
   31       -7.870994   1.000000
   32       -7.849191   1.000000
   33       -7.199071   1.000000
   34       -6.516083   1.000000
   35       -6.210499   1.000000
   36       -5.378289   1.000000
   37       -5.375238   1.000000
   38       -4.943786   1.000000
   39       -4.932065   1.000000
   40       -4.846729   1.000000
   41       -4.422341   1.000000
   42       -4.418208   1.000000
   43       -3.632598   1.000000
   44       -3.381504   1.000000
   45       -3.154884   1.000000
   46       -3.110951   1.000000
   47       -3.089315   1.000000
   48       -3.075393   1.000000
   49       -2.117571   1.000000
   50       -2.109861   1.000000
   51       -1.588151   1.000000
   52       -1.474384   0.999999
   53       -0.780556   0.000000
   54       -0.081691   0.000000
   55       -0.048599   0.000000
   56        0.062412   0.000000
   57        0.319298   0.000000
   58        0.339127   0.000000
   59        0.351828   0.000000
   60        1.281848   0.000000
   61        1.288527   0.000000
   62        1.765143   0.000000
   63        1.890620   0.000000
   64        2.358926   0.000000
   65        2.375559   0.000000
   66        2.393662   0.000000
   67        2.681148   0.000000
   68        2.721441   0.000000
 
  0.4491525E+00  0.0000000E+00  0.0000000E+00  0.5555556E-02
    1      -21.360789   1.000000
    2      -21.091726   1.000000
    3      -19.917237   1.000000
    4      -19.914371   1.000000
    5      -17.642505   1.000000
    6      -17.639768   1.000000
    7      -17.150235   1.000000
    8      -17.147269   1.000000
    9      -16.679772   1.000000
   10      -15.430502   1.000000
   11      -13.808191   1.000000
   12      -13.805448   1.000000
   13      -13.542288   1.000000
   14      -13.539639   1.000000
   15      -10.748334   1.000000
   16      -10.651911   1.000000
   17      -10.649087   1.000000
   18      -10.542139   1.000000
   19      -10.038359   1.000000
   20      -10.029710   1.000000
   21       -9.974747   1.000000
   22       -9.972378   1.000000
   23       -9.896243   1.000000
   24       -9.887967   1.000000
   25       -9.510556   1.000000
   26       -9.207035   1.000000
   27       -8.642588   1.000000
   28       -8.619839   1.000000
   29       -8.617968   1.000000
   30       -7.940791   1.000000
   31       -7.868913   1.000000
   32       -7.862588   1.000000
   33       -7.135547   1.000000
   34       -6.546979   1.000000
   35       -6.180595   1.000000
   36       -5.417692   1.000000
   37       -5.415480   1.000000
   38       -4.908382   1.000000
   39       -4.891226   1.000000
   40       -4.855222   1.000000
   41       -4.429463   1.000000
   42       -4.425241   1.000000
   43       -3.674514   1.000000
   44       -3.397546   1.000000
   45       -3.118227   1.000000
   46       -3.085131   1.000000
   47       -3.077677   1.000000
   48       -3.061836   1.000000
   49       -2.116844   1.000000
   50       -2.109121   1.000000
   51       -1.599100   1.000000
   52       -1.462780   0.999995
   53       -0.763459   0.000000
   54       -0.120488   0.000000
   55       -0.088916   0.000000
   56        0.041428   0.000000
   57        0.346881   0.000000
   58        0.373349   0.000000
   59        0.391539   0.000000
   60        1.279123   0.000000
   61        1.286096   0.000000
   62        1.749481   0.000000
   63        1.897867   0.000000
   64        2.353155   0.000000
   65        2.367512   0.000000
   66        2.369659   0.000000
   67        2.703643   0.000000
   68        2.710680   0.000000
 
  0.4406780E+00  0.0000000E+00  0.0000000E+00  0.5555556E-02
    1      -21.380741   1.000000
    2      -21.066908   1.000000
    3      -19.914805   1.000000
    4      -19.911940   1.000000
    5      -17.681542   1.000000
    6      -17.678771   1.000000
    7      -17.107794   1.000000
    8      -17.104862   1.000000
    9      -16.718040   1.000000
   10      -15.388535   1.000000
   11      -13.828438   1.000000
   12      -13.825735   1.000000
   13      -13.518303   1.000000
   14      -13.515616   1.000000
   15      -10.764423   1.000000
   16      -10.709177   1.000000
   17      -10.706329   1.000000
   18      -10.524204   1.000000
   19      -10.054435   1.000000
   20      -10.045837   1.000000
   21       -9.920132   1.000000
   22       -9.917993   1.000000
   23       -9.895471   1.000000
   24       -9.887480   1.000000
   25       -9.533039   1.000000
   26       -9.179183   1.000000
   27       -8.640099   1.000000
   28       -8.607440   1.000000
   29       -8.605497   1.000000
   30       -8.008031   1.000000
   31       -7.866392   1.000000
   32       -7.862267   1.000000
   33       -7.072636   1.000000
   34       -6.577889   1.000000
   35       -6.150873   1.000000
   36       -5.457408   1.000000
   37       -5.455702   1.000000
   38       -4.896396   1.000000
   39       -4.850075   1.000000
   40       -4.842645   1.000000
   41       -4.437496   1.000000
   42       -4.433141   1.000000
   43       -3.716336   1.000000
   44       -3.415221   1.000000
   45       -3.084685   1.000000
   46       -3.064190   1.000000
   47       -3.058283   1.000000
   48       -3.041589   1.000000
   49       -2.115989   1.000000
   50       -2.108250   1.000000
   51       -1.609955   1.000000
   52       -1.451158   0.999977
   53       -0.743451   0.000000
   54       -0.159586   0.000000
   55       -0.129283   0.000000
   56        0.020178   0.000000
   57        0.373077   0.000000
   58        0.409873   0.000000
   59        0.431171   0.000000
   60        1.275926   0.000000
   61        1.283244   0.000000
   62        1.733548   0.000000
   63        1.903803   0.000000
   64        2.336934   0.000000
   65        2.351547   0.000000
   66        2.362819   0.000000
   67        2.683197   0.000000
   68        2.725567   0.000000
 
  0.4322034E+00  0.0000000E+00  0.0000000E+00  0.5555556E-02
    1      -21.400324   1.000000
    2      -21.041717   1.000000
    3      -19.912004   1.000000
    4      -19.909140   1.000000
    5      -17.720320   1.000000
    6      -17.717521   1.000000
    7      -17.065099   1.000000
    8      -17.062191   1.000000
    9      -16.759367   1.000000
   10      -15.342948   1.000000
   11      -13.848421   1.000000
   12      -13.845752   1.000000
   13      -13.494017   1.000000
   14      -13.491298   1.000000
   15      -10.780322   1.000000
   16      -10.766481   1.000000
   17      -10.763610   1.000000
   18      -10.506186   1.000000
   19      -10.072670   1.000000
   20      -10.064093   1.000000
   21       -9.896136   1.000000
   22       -9.887722   1.000000
   23       -9.864956   1.000000
   24       -9.862443   1.000000
   25       -9.555162   1.000000
   26       -9.150872   1.000000
   27       -8.637235   1.000000
   28       -8.593544   1.000000
   29       -8.591521   1.000000
   30       -8.077229   1.000000
   31       -7.863448   1.000000
   32       -7.860014   1.000000
   33       -7.010360   1.000000
   34       -6.608802   1.000000
   35       -6.121355   1.000000
   36       -5.497277   1.000000
   37       -5.495758   1.000000
   38       -4.909748   1.000000
   39       -4.809036   1.000000
   40       -4.807174   1.000000
   41       -4.446204   1.000000
   42       -4.441649   1.000000
   43       -3.757985   1.000000
   44       -3.433666   1.000000
   45       -3.056687   1.000000
   46       -3.048855   1.000000
   47       -3.036194   1.000000
   48       -3.007596   1.000000
   49       -2.115007   1.000000
   50       -2.107251   1.000000
   51       -1.620707   1.000000
   52       -1.439528   0.999909
   53       -0.720648   0.000000
   54       -0.198870   0.000000
   55       -0.169695   0.000000
   56       -0.001103   0.000000
   57        0.398946   0.000000
   58        0.447280   0.000000
   59        0.470704   0.000000
   60        1.272274   0.000000
   61        1.279984   0.000000
   62        1.717414   0.000000
   63        1.908345   0.000000
   64        2.311536   0.000000
   65        2.344492   0.000000
   66        2.355192   0.000000
   67        2.661896   0.000000
   68        2.701474   0.000000
 
  0.4237288E+00  0.0000000E+00  0.0000000E+00  0.5555556E-02
    1      -21.419539   1.000000
    2      -21.016157   1.000000
    3      -19.908826   1.000000
    4      -19.905964   1.000000
    5      -17.758823   1.000000
    6      -17.756000   1.000000
    7      -17.022168   1.000000
    8      -17.019275   1.000000
    9      -16.803160   1.000000
   10      -15.294311   1.000000
   11      -13.868139   1.000000
   12      -13.865503   1.000000
   13      -13.469429   1.000000
   14      -13.466680   1.000000
   15      -10.823828   1.000000
   16      -10.820910   1.000000
   17      -10.795988   1.000000
   18      -10.488102   1.000000
   19      -10.092860   1.000000
   20      -10.084309   1.000000
   21       -9.895456   1.000000
   22       -9.887043   1.000000
   23       -9.811018   1.000000
   24       -9.808500   1.000000
   25       -9.576911   1.000000
   26       -9.122109   1.000000
   27       -8.633994   1.000000
   28       -8.578292   1.000000
   29       -8.576189   1.000000
   30       -8.147217   1.000000
   31       -7.860090   1.000000
   32       -7.856958   1.000000
   33       -6.948748   1.000000
   34       -6.639706   1.000000
   35       -6.092065   1.000000
   36       -5.537190   1.000000
   37       -5.535569   1.000000
   38       -4.930101   1.000000
   39       -4.768508   1.000000
   40       -4.767351   1.000000
   41       -4.455240   1.000000
   42       -4.450387   1.000000
   43       -3.799405   1.000000
   44       -3.452443   1.000000
   45       -3.032824   1.000000
   46       -3.031660   1.000000
   47       -3.014842   1.000000
   48       -2.966020   1.000000
   49       -2.113902   1.000000
   50       -2.106126   1.000000
   51       -1.631350   1.000000
   52       -1.427896   0.999680
   53       -0.695159   0.000000
   54       -0.238274   0.000000
   55       -0.210167   0.000000
   56       -0.022273   0.000000
   57        0.424806   0.000000
   58        0.485037   0.000000
   59        0.510127   0.000000
   60        1.268186   0.000000
   61        1.276336   0.000000
   62        1.701147   0.000000
   63        1.911426   0.000000
   64        2.285725   0.000000
   65        2.337676   0.000000
   66        2.346842   0.000000
   67        2.639304   0.000000
   68        2.681499   0.000000
 
  0.4152542E+00  0.0000000E+00  0.0000000E+00  0.5555556E-02
    1      -21.438373   1.000000
    2      -20.990221   1.000000
    3      -19.905275   1.000000
    4      -19.902414   1.000000
    5      -17.797046   1.000000
    6      -17.794202   1.000000
    7      -16.979028   1.000000
    8      -16.976130   1.000000
    9      -16.848928   1.000000
   10      -15.243112   1.000000
   11      -13.887599   1.000000
   12      -13.884992   1.000000
   13      -13.444542   1.000000
   14      -13.441767   1.000000
   15      -10.881152   1.000000
   16      -10.878204   1.000000
   17      -10.811459   1.000000
   18      -10.469968   1.000000
   19      -10.114850   1.000000
   20      -10.106341   1.000000
   21       -9.894926   1.000000
   22       -9.886530   1.000000
   23       -9.757253   1.000000
   24       -9.754725   1.000000
   25       -9.598267   1.000000
   26       -9.092902   1.000000
   27       -8.630374   1.000000
   28       -8.561830   1.000000
   29       -8.559655   1.000000
   30       -8.217726   1.000000
   31       -7.856326   1.000000
   32       -7.853344   1.000000
   33       -6.887822   1.000000
   34       -6.670588   1.000000
   35       -6.063036   1.000000
   36       -5.577043   1.000000
   37       -5.575110   1.000000
   38       -4.953749   1.000000
   39       -4.728765   1.000000
   40       -4.727569   1.000000
   41       -4.464057   1.000000
   42       -4.458763   1.000000
   43       -3.840557   1.000000
   44       -3.471311   1.000000
   45       -3.013383   1.000000
   46       -3.010371   1.000000
   47       -2.991753   1.000000
   48       -2.921801   1.000000
   49       -2.112676   1.000000
   50       -2.104877   1.000000
   51       -1.641879   1.000000
   52       -1.416273   0.998983
   53       -0.667159   0.000000
   54       -0.277715   0.000000
   55       -0.250698   0.000000
   56       -0.043237   0.000000
   57        0.450740   0.000000
   58        0.522910   0.000000
   59        0.549427   0.000000
   60        1.263687   0.000000
   61        1.272324   0.000000
   62        1.684805   0.000000
   63        1.912992   0.000000
   64        2.260189   0.000000
   65        2.330479   0.000000
   66        2.337856   0.000000
   67        2.616035   0.000000
   68        2.662014   0.000000
 
  0.4067797E+00  0.0000000E+00  0.0000000E+00  0.5555556E-02
    1      -21.456833   1.000000
    2      -20.963910   1.000000
    3      -19.901349   1.000000
    4      -19.898490   1.000000
    5      -17.834986   1.000000
    6      -17.832123   1.000000
    7      -16.935830   1.000000
    8      -16.932784   1.000000
    9      -16.896100   1.000000
   10      -15.189745   1.000000
   11      -13.906798   1.000000
   12      -13.904219   1.000000
   13      -13.419359   1.000000
   14      -13.416559   1.000000
   15      -10.938450   1.000000
   16      -10.935470   1.000000
   17      -10.826708   1.000000
   18      -10.451795   1.000000
   19      -10.138500   1.000000
   20      -10.130051   1.000000
   21       -9.894384   1.000000
   22       -9.885997   1.000000
   23       -9.703938   1.000000
   24       -9.701308   1.000000
   25       -9.619158   1.000000
   26       -9.063258   1.000000
   27       -8.626376   1.000000
   28       -8.544300   1.000000
   29       -8.542078   1.000000
   30       -8.288634   1.000000
   31       -7.852160   1.000000
   32       -7.849250   1.000000
   33       -6.827610   1.000000
   34       -6.701440   1.000000
   35       -6.034308   1.000000
   36       -5.616753   1.000000
   37       -5.614358   1.000000
   38       -4.979892   1.000000
   39       -4.690811   1.000000
   40       -4.689348   1.000000
   41       -4.471705   1.000000
   42       -4.465764   1.000000
   43       -3.881406   1.000000
   44       -3.490129   1.000000
   45       -2.993310   1.000000
   46       -2.988575   1.000000
   47       -2.967386   1.000000
   48       -2.876363   1.000000
   49       -2.111330   1.000000
   50       -2.103506   1.000000
   51       -1.652287   1.000000
   52       -1.404667   0.997082
   53       -0.636853   0.000000
   54       -0.317074   0.000000
   55       -0.291283   0.000000
   56       -0.063924   0.000000
   57        0.476762   0.000000
   58        0.560746   0.000000
   59        0.588560   0.000000
   60        1.258808   0.000000
   61        1.267979   0.000000
   62        1.668445   0.000000
   63        1.913008   0.000000
   64        2.235035   0.000000
   65        2.322862   0.000000
   66        2.328318   0.000000
   67        2.592388   0.000000
   68        2.643421   0.000000
 
  0.3983051E+00  0.0000000E+00  0.0000000E+00  0.5555556E-02
    1      -21.474915   1.000000
    2      -20.937227   1.000000
    3      -19.897051   1.000000
    4      -19.894193   1.000000
    5      -17.872630   1.000000
    6      -17.869750   1.000000
    7      -16.945394   1.000000
    8      -16.891704   1.000000
    9      -16.889092   1.000000
   10      -15.134529   1.000000
   11      -13.925748   1.000000
   12      -13.923196   1.000000
   13      -13.393877   1.000000
   14      -13.391053   1.000000
   15      -10.995699   1.000000
   16      -10.992685   1.000000
   17      -10.841728   1.000000
   18      -10.433600   1.000000
   19      -10.163675   1.000000
   20      -10.155306   1.000000
   21       -9.893810   1.000000
   22       -9.885429   1.000000
   23       -9.652646   1.000000
   24       -9.648312   1.000000
   25       -9.638026   1.000000
   26       -9.033181   1.000000
   27       -8.622000   1.000000
   28       -8.525844   1.000000
   29       -8.523648   1.000000
   30       -8.359838   1.000000
   31       -7.847593   1.000000
   32       -7.844713   1.000000
   33       -6.768145   1.000000
   34       -6.732235   1.000000
   35       -6.005943   1.000000
   36       -5.656269   1.000000
   37       -5.653263   1.000000
   38       -5.008207   1.000000
   39       -4.656558   1.000000
   40       -4.654453   1.000000
   41       -4.476405   1.000000
   42       -4.469568   1.000000
   43       -3.921926   1.000000
   44       -3.508805   1.000000
   45       -2.971896   1.000000
   46       -2.966243   1.000000
   47       -2.942312   1.000000
   48       -2.830228   1.000000
   49       -2.109869   1.000000
   50       -2.102017   1.000000
   51       -1.662572   1.000000
   52       -1.393087   0.992437
   53       -0.604581   0.000000
   54       -0.356146   0.000000
   55       -0.331927   0.000000
   56       -0.084259   0.000000
   57        0.502854   0.000000
   58        0.598453   0.000000
   59        0.627497   0.000000
   60        1.253587   0.000000
   61        1.263342   0.000000
   62        1.652126   0.000000